HEADER
"PSFversion" "1.00"
"__NEXT_FILE__" "lab2_nora_sim"
