HEADER
"PSFversion" "1.00"
"Run Generator" "drlRun rev. 1.0"
"Run Time Stamp" "Wed Mar 27 18:37:58 2024"
"date" "Wed Mar 27 18:37:58 2024"
TYPE
"runObject" STRUCT(
"logName" ARRAY( * ) STRING *
"parent" STRING *
"sweepVariable" ARRAY( * ) STRING *
) PROP( "key" "runObject" )
VALUE
"run1" "runObject" (
(
"logFile"
)
""
()
)
END
