HEADER
"PSFversion" "1.00"
"Log Generator" "drlLog rev. 1.0"
"Log Time Stamp" "Thu Mar 28 22:49:54 2024"
"simulator" "spectre"
"date" "Thu Mar 28 22:49:54 2024"
TYPE
"analysisInst" STRUCT(
"analysisType" STRING *
"dataFile" STRING *
"format" STRING *
"parent" STRING *
"sweepVariable" ARRAY ( * ) STRING *
"description" STRING *
)
VALUE
"tran-tran" "analysisInst" (
"tran"
"tran.tran"
"PSF"
""
("time")
"Transient Analysis"
)
END
