HEADER
"PSFversion" "1.00"
"design" "(\"ece4740\" \"lab3_dff_sim\" \"schematic\" \"\")"
"simulator" "spectre"
"temperature" "25.0"
"host" ""
"date" "Apr  2 22:18:47 2024"
"title" ""
"analysisList" "()"
END
