HEADER
"PSFversion" "1.00"
"Time Stamp" "Apr  2 22:18:47 2024"
TYPE
"variable" STRUCT(
"value" FLOAT DOUBLE
) PROP( "key" "element" )
VALUE
"temp" "variable" ( 25.0 ) PROP( )
END
