HEADER
"PSFversion" "1.00"
"design" "(\"ece4740\" \"lab1sim\" \"schematic\" \"\")"
"simulator" "spectre"
"temperature" "25.0"
"host" ""
"date" "Feb  3 23:03:46 2024"
"title" ""
"analysisList" "()"
END
