HEADER
"PSFversion" "1.00"
"Time Stamp" "Feb  3 23:03:46 2024"
TYPE
"variable" STRUCT(
"value" FLOAT DOUBLE
) PROP( "key" "element" )
VALUE
"temp" "variable" ( 25.0 ) PROP( )
END
