HEADER
"PSFversion" "1.00"
"V0n" "analogLib_vpulse_spectre"
"V1n" "analogLib_vdc_spectre"
"C0n" "analogLib_cap_spectre"
"I5n" "lab1inv"
