HEADER
"PSFversion" "1.00"
"design" "(\"ece4740\" \"lab2_nora_sim\" \"schematic\" \"\")"
"simulator" "spectre"
"temperature" "25.0"
"host" ""
"date" "Mar 25 20:53:32 2024"
"title" ""
"analysisList" "()"
END
