HEADER
"PSFversion" "1.00"
"simulator" "spectre"
"version" "20.1.0.099.isr2"
"date" "10:06:43 PM, Fri Mar 15, 2024"
"design" "// Generated for: spectre"
"analysis type" "info"
"analysis name" "designParamVals"
"analysis description" "Circuit Information"
"xVecSorted" "unknown"
"tolerance.relative" 0.00100000
TYPE
"top-level" STRUCT(
"temp" FLOAT DOUBLE
"tnom" FLOAT DOUBLE
"time" FLOAT DOUBLE
"s1v_rs_ne" FLOAT DOUBLE
"s1v_vsat_ne" FLOAT DOUBLE
"s1v_pldd_surf" FLOAT DOUBLE
"s1v_uc1_ne" FLOAT DOUBLE
"s1v_u0_ne" FLOAT DOUBLE
"s1v_nch_ne" FLOAT DOUBLE
"s1v_rsc_ne" FLOAT DOUBLE
"s1v_cgbo_ne" FLOAT DOUBLE
"s1v_prt_ne" FLOAT DOUBLE
"s1v_rdc_ne" FLOAT DOUBLE
"s1v_vth0_ne" FLOAT DOUBLE
"s1v_k2_ne" FLOAT DOUBLE
"s1v_cgdo_ne" FLOAT DOUBLE
"s1v_ckappa_ne" FLOAT DOUBLE
"s1v_wint_ne" FLOAT DOUBLE
"s1v_k1_ne" FLOAT DOUBLE
"s1v_cgsl_ne" FLOAT DOUBLE
"s1v_nldd_surf" FLOAT DOUBLE
"s1v_js_ne" FLOAT DOUBLE
"s1v_hdif_ne" FLOAT DOUBLE
"s1v_rdsw_ne" FLOAT DOUBLE
"s1v_jsw_ne" FLOAT DOUBLE
"s1v_tox_ne" FLOAT DOUBLE
"s1v_cj_ne" FLOAT DOUBLE
"s1v_cjsw_ne" FLOAT DOUBLE
"s1v_ldif_ne" FLOAT DOUBLE
"s1v_xj_ne" FLOAT DOUBLE
"s1v_rd_ne" FLOAT DOUBLE
"s1v_pb_ne" FLOAT DOUBLE
"s1v_cf_ne" FLOAT DOUBLE
"s1v_lint_ne" FLOAT DOUBLE
"s1v_cjswg_ne" FLOAT DOUBLE
"s1v_rsh_ne" FLOAT DOUBLE
"s1v_u0_pe" FLOAT DOUBLE
"s1v_nch_pe" FLOAT DOUBLE
"s1v_rsc_pe" FLOAT DOUBLE
"s1v_cgbo_pe" FLOAT DOUBLE
"s1v_rdc_pe" FLOAT DOUBLE
"s1v_vth0_pe" FLOAT DOUBLE
"s1v_k2_pe" FLOAT DOUBLE
"s1v_cgdo_pe" FLOAT DOUBLE
"s1v_ckappa_pe" FLOAT DOUBLE
"s1v_wint_pe" FLOAT DOUBLE
"s1v_k1_pe" FLOAT DOUBLE
"s1v_cgsl_pe" FLOAT DOUBLE
"s1v_js_pe" FLOAT DOUBLE
"s1v_hdif_pe" FLOAT DOUBLE
"s1v_rdsw_pe" FLOAT DOUBLE
"s1v_jsw_pe" FLOAT DOUBLE
"s1v_tox_pe" FLOAT DOUBLE
"s1v_cj_pe" FLOAT DOUBLE
"s1v_cjsw_pe" FLOAT DOUBLE
"s1v_ldif_pe" FLOAT DOUBLE
"s1v_xj_pe" FLOAT DOUBLE
"s1v_rd_pe" FLOAT DOUBLE
"s1v_pb_pe" FLOAT DOUBLE
"s1v_cf_pe" FLOAT DOUBLE
"s1v_lint_pe" FLOAT DOUBLE
"s1v_cjswg_pe" FLOAT DOUBLE
"s1v_rsh_pe" FLOAT DOUBLE
"s1v_rs_pe" FLOAT DOUBLE
"s1v_vsat_pe" FLOAT DOUBLE
"lp_rs_ne" FLOAT DOUBLE
"lp_vsat_ne" FLOAT DOUBLE
"lp_pldd_surf" FLOAT DOUBLE
"lp_uc1_ne" FLOAT DOUBLE
"lp_u0_ne" FLOAT DOUBLE
"lp_nch_ne" FLOAT DOUBLE
"lp_rsc_ne" FLOAT DOUBLE
"lp_cgbo_ne" FLOAT DOUBLE
"lp_prt_ne" FLOAT DOUBLE
"lp_rdc_ne" FLOAT DOUBLE
"lp_vth0_ne" FLOAT DOUBLE
"lp_k2_ne" FLOAT DOUBLE
"lp_cgdo_ne" FLOAT DOUBLE
"lp_ckappa_ne" FLOAT DOUBLE
"lp_wint_ne" FLOAT DOUBLE
"lp_k1_ne" FLOAT DOUBLE
"lp_cgsl_ne" FLOAT DOUBLE
"lp_nldd_surf" FLOAT DOUBLE
"lp_js_ne" FLOAT DOUBLE
"lp_hdif_ne" FLOAT DOUBLE
"lp_rdsw_ne" FLOAT DOUBLE
"lp_jsw_ne" FLOAT DOUBLE
"lp_tox_ne" FLOAT DOUBLE
"lp_cj_ne" FLOAT DOUBLE
"lp_cjsw_ne" FLOAT DOUBLE
"lp_ldif_ne" FLOAT DOUBLE
"lp_xj_ne" FLOAT DOUBLE
"lp_rd_ne" FLOAT DOUBLE
"lp_pb_ne" FLOAT DOUBLE
"lp_cf_ne" FLOAT DOUBLE
"lp_lint_ne" FLOAT DOUBLE
"lp_cjswg_ne" FLOAT DOUBLE
"lp_rsh_ne" FLOAT DOUBLE
"lp_u0_pe" FLOAT DOUBLE
"lp_nch_pe" FLOAT DOUBLE
"lp_rsc_pe" FLOAT DOUBLE
"lp_cgbo_pe" FLOAT DOUBLE
"lp_rdc_pe" FLOAT DOUBLE
"lp_vth0_pe" FLOAT DOUBLE
"lp_k2_pe" FLOAT DOUBLE
"lp_cgdo_pe" FLOAT DOUBLE
"lp_ckappa_pe" FLOAT DOUBLE
"lp_wint_pe" FLOAT DOUBLE
"lp_k1_pe" FLOAT DOUBLE
"lp_cgsl_pe" FLOAT DOUBLE
"lp_js_pe" FLOAT DOUBLE
"lp_hdif_pe" FLOAT DOUBLE
"lp_rdsw_pe" FLOAT DOUBLE
"lp_jsw_pe" FLOAT DOUBLE
"lp_tox_pe" FLOAT DOUBLE
"lp_cj_pe" FLOAT DOUBLE
"lp_cjsw_pe" FLOAT DOUBLE
"lp_ldif_pe" FLOAT DOUBLE
"lp_xj_pe" FLOAT DOUBLE
"lp_rd_pe" FLOAT DOUBLE
"lp_pb_pe" FLOAT DOUBLE
"lp_cf_pe" FLOAT DOUBLE
"lp_lint_pe" FLOAT DOUBLE
"lp_cjswg_pe" FLOAT DOUBLE
"lp_rsh_pe" FLOAT DOUBLE
"lp_rs_pe" FLOAT DOUBLE
"lp_vsat_pe" FLOAT DOUBLE
"hv_rs_ne" FLOAT DOUBLE
"hv_vsat_ne" FLOAT DOUBLE
"hv_pldd_surf" FLOAT DOUBLE
"hv_uc1_ne" FLOAT DOUBLE
"hv_u0_ne" FLOAT DOUBLE
"hv_nch_ne" FLOAT DOUBLE
"hv_rsc_ne" FLOAT DOUBLE
"hv_cgbo_ne" FLOAT DOUBLE
"hv_prt_ne" FLOAT DOUBLE
"hv_rdc_ne" FLOAT DOUBLE
"hv_vth0_ne" FLOAT DOUBLE
"hv_k2_ne" FLOAT DOUBLE
"hv_cgdo_ne" FLOAT DOUBLE
"hv_ckappa_ne" FLOAT DOUBLE
"hv_wint_ne" FLOAT DOUBLE
"hv_k1_ne" FLOAT DOUBLE
"hv_cgsl_ne" FLOAT DOUBLE
"hv_nldd_surf" FLOAT DOUBLE
"hv_js_ne" FLOAT DOUBLE
"hv_hdif_ne" FLOAT DOUBLE
"hv_rdsw_ne" FLOAT DOUBLE
"hv_jsw_ne" FLOAT DOUBLE
"hv_tox_ne" FLOAT DOUBLE
"hv_cj_ne" FLOAT DOUBLE
"hv_cjsw_ne" FLOAT DOUBLE
"hv_ldif_ne" FLOAT DOUBLE
"hv_xj_ne" FLOAT DOUBLE
"hv_rd_ne" FLOAT DOUBLE
"hv_pb_ne" FLOAT DOUBLE
"hv_cf_ne" FLOAT DOUBLE
"hv_lint_ne" FLOAT DOUBLE
"hv_cjswg_ne" FLOAT DOUBLE
"hv_rsh_ne" FLOAT DOUBLE
"hv_u0_pe" FLOAT DOUBLE
"hv_nch_pe" FLOAT DOUBLE
"hv_rsc_pe" FLOAT DOUBLE
"hv_cgbo_pe" FLOAT DOUBLE
"hv_rdc_pe" FLOAT DOUBLE
"hv_vth0_pe" FLOAT DOUBLE
"hv_k2_pe" FLOAT DOUBLE
"hv_cgdo_pe" FLOAT DOUBLE
"hv_ckappa_pe" FLOAT DOUBLE
"hv_wint_pe" FLOAT DOUBLE
"hv_k1_pe" FLOAT DOUBLE
"hv_cgsl_pe" FLOAT DOUBLE
"hv_js_pe" FLOAT DOUBLE
"hv_hdif_pe" FLOAT DOUBLE
"hv_rdsw_pe" FLOAT DOUBLE
"hv_jsw_pe" FLOAT DOUBLE
"hv_tox_pe" FLOAT DOUBLE
"hv_cj_pe" FLOAT DOUBLE
"hv_cjsw_pe" FLOAT DOUBLE
"hv_ldif_pe" FLOAT DOUBLE
"hv_xj_pe" FLOAT DOUBLE
"hv_rd_pe" FLOAT DOUBLE
"hv_pb_pe" FLOAT DOUBLE
"hv_cf_pe" FLOAT DOUBLE
"hv_lint_pe" FLOAT DOUBLE
"hv_cjswg_pe" FLOAT DOUBLE
"hv_rsh_pe" FLOAT DOUBLE
"hv_rs_pe" FLOAT DOUBLE
"hv_vsat_pe" FLOAT DOUBLE
"s1v_rs_necap" FLOAT DOUBLE
"s1v_vsat_necap" FLOAT DOUBLE
"s1v_pldd_surfcap" FLOAT DOUBLE
"s1v_uc1_necap" FLOAT DOUBLE
"s1v_u0_necap" FLOAT DOUBLE
"s1v_nch_necap" FLOAT DOUBLE
"s1v_rsc_necap" FLOAT DOUBLE
"s1v_cgbo_necap" FLOAT DOUBLE
"s1v_prt_necap" FLOAT DOUBLE
"s1v_rdc_necap" FLOAT DOUBLE
"s1v_vth0_necap" FLOAT DOUBLE
"s1v_k2_necap" FLOAT DOUBLE
"s1v_cgdo_necap" FLOAT DOUBLE
"s1v_ckappa_necap" FLOAT DOUBLE
"s1v_wint_necap" FLOAT DOUBLE
"s1v_k1_necap" FLOAT DOUBLE
"s1v_cgsl_necap" FLOAT DOUBLE
"s1v_nldd_surfcap" FLOAT DOUBLE
"s1v_js_necap" FLOAT DOUBLE
"s1v_hdif_necap" FLOAT DOUBLE
"s1v_rdsw_necap" FLOAT DOUBLE
"s1v_jsw_necap" FLOAT DOUBLE
"s1v_tox_necap" FLOAT DOUBLE
"s1v_cj_necap" FLOAT DOUBLE
"s1v_cjsw_necap" FLOAT DOUBLE
"s1v_ldif_necap" FLOAT DOUBLE
"s1v_xj_necap" FLOAT DOUBLE
"s1v_rd_necap" FLOAT DOUBLE
"s1v_pb_necap" FLOAT DOUBLE
"s1v_cf_necap" FLOAT DOUBLE
"s1v_lint_necap" FLOAT DOUBLE
"s1v_cjswg_necap" FLOAT DOUBLE
"s1v_rsh_necap" FLOAT DOUBLE
"s1v_u0_pecap" FLOAT DOUBLE
"s1v_nch_pecap" FLOAT DOUBLE
"s1v_rsc_pecap" FLOAT DOUBLE
"s1v_cgbo_pecap" FLOAT DOUBLE
"s1v_rdc_pecap" FLOAT DOUBLE
"s1v_vth0_pecap" FLOAT DOUBLE
"s1v_k2_pecap" FLOAT DOUBLE
"s1v_cgdo_pecap" FLOAT DOUBLE
"s1v_ckappa_pecap" FLOAT DOUBLE
"s1v_wint_pecap" FLOAT DOUBLE
"s1v_k1_pecap" FLOAT DOUBLE
"s1v_cgsl_pecap" FLOAT DOUBLE
"s1v_js_pecap" FLOAT DOUBLE
"s1v_hdif_pecap" FLOAT DOUBLE
"s1v_rdsw_pecap" FLOAT DOUBLE
"s1v_jsw_pecap" FLOAT DOUBLE
"s1v_tox_pecap" FLOAT DOUBLE
"s1v_cj_pecap" FLOAT DOUBLE
"s1v_cjsw_pecap" FLOAT DOUBLE
"s1v_ldif_pecap" FLOAT DOUBLE
"s1v_xj_pecap" FLOAT DOUBLE
"s1v_rd_pecap" FLOAT DOUBLE
"s1v_pb_pecap" FLOAT DOUBLE
"s1v_cf_pecap" FLOAT DOUBLE
"s1v_lint_pecap" FLOAT DOUBLE
"s1v_cjswg_pecap" FLOAT DOUBLE
"s1v_rsh_pecap" FLOAT DOUBLE
"s1v_rs_pecap" FLOAT DOUBLE
"s1v_vsat_pecap" FLOAT DOUBLE
"lp_rs_necap" FLOAT DOUBLE
"lp_vsat_necap" FLOAT DOUBLE
"lp_pldd_surfcap" FLOAT DOUBLE
"lp_uc1_necap" FLOAT DOUBLE
"lp_u0_necap" FLOAT DOUBLE
"lp_nch_necap" FLOAT DOUBLE
"lp_rsc_necap" FLOAT DOUBLE
"lp_cgbo_necap" FLOAT DOUBLE
"lp_prt_necap" FLOAT DOUBLE
"lp_rdc_necap" FLOAT DOUBLE
"lp_vth0_necap" FLOAT DOUBLE
"lp_k2_necap" FLOAT DOUBLE
"lp_cgdo_necap" FLOAT DOUBLE
"lp_ckappa_necap" FLOAT DOUBLE
"lp_wint_necap" FLOAT DOUBLE
"lp_k1_necap" FLOAT DOUBLE
"lp_cgsl_necap" FLOAT DOUBLE
"lp_nldd_surfcap" FLOAT DOUBLE
"lp_js_necap" FLOAT DOUBLE
"lp_hdif_necap" FLOAT DOUBLE
"lp_rdsw_necap" FLOAT DOUBLE
"lp_jsw_necap" FLOAT DOUBLE
"lp_tox_necap" FLOAT DOUBLE
"lp_cj_necap" FLOAT DOUBLE
"lp_cjsw_necap" FLOAT DOUBLE
"lp_ldif_necap" FLOAT DOUBLE
"lp_xj_necap" FLOAT DOUBLE
"lp_rd_necap" FLOAT DOUBLE
"lp_pb_necap" FLOAT DOUBLE
"lp_cf_necap" FLOAT DOUBLE
"lp_lint_necap" FLOAT DOUBLE
"lp_cjswg_necap" FLOAT DOUBLE
"lp_rsh_necap" FLOAT DOUBLE
"lp_u0_pecap" FLOAT DOUBLE
"lp_nch_pecap" FLOAT DOUBLE
"lp_rsc_pecap" FLOAT DOUBLE
"lp_cgbo_pecap" FLOAT DOUBLE
"lp_rdc_pecap" FLOAT DOUBLE
"lp_vth0_pecap" FLOAT DOUBLE
"lp_k2_pecap" FLOAT DOUBLE
"lp_cgdo_pecap" FLOAT DOUBLE
"lp_ckappa_pecap" FLOAT DOUBLE
"lp_wint_pecap" FLOAT DOUBLE
"lp_k1_pecap" FLOAT DOUBLE
"lp_cgsl_pecap" FLOAT DOUBLE
"lp_js_pecap" FLOAT DOUBLE
"lp_hdif_pecap" FLOAT DOUBLE
"lp_rdsw_pecap" FLOAT DOUBLE
"lp_jsw_pecap" FLOAT DOUBLE
"lp_tox_pecap" FLOAT DOUBLE
"lp_cj_pecap" FLOAT DOUBLE
"lp_cjsw_pecap" FLOAT DOUBLE
"lp_ldif_pecap" FLOAT DOUBLE
"lp_xj_pecap" FLOAT DOUBLE
"lp_rd_pecap" FLOAT DOUBLE
"lp_pb_pecap" FLOAT DOUBLE
"lp_cf_pecap" FLOAT DOUBLE
"lp_lint_pecap" FLOAT DOUBLE
"lp_cjswg_pecap" FLOAT DOUBLE
"lp_rsh_pecap" FLOAT DOUBLE
"lp_rs_pecap" FLOAT DOUBLE
"lp_vsat_pecap" FLOAT DOUBLE
"hv_rs_necap" FLOAT DOUBLE
"hv_vsat_necap" FLOAT DOUBLE
"hv_pldd_surfcap" FLOAT DOUBLE
"hv_uc1_necap" FLOAT DOUBLE
"hv_u0_necap" FLOAT DOUBLE
"hv_nch_necap" FLOAT DOUBLE
"hv_rsc_necap" FLOAT DOUBLE
"hv_cgbo_necap" FLOAT DOUBLE
"hv_prt_necap" FLOAT DOUBLE
"hv_rdc_necap" FLOAT DOUBLE
"hv_vth0_necap" FLOAT DOUBLE
"hv_k2_necap" FLOAT DOUBLE
"hv_cgdo_necap" FLOAT DOUBLE
"hv_ckappa_necap" FLOAT DOUBLE
"hv_wint_necap" FLOAT DOUBLE
"hv_k1_necap" FLOAT DOUBLE
"hv_cgsl_necap" FLOAT DOUBLE
"hv_nldd_surfcap" FLOAT DOUBLE
"hv_js_necap" FLOAT DOUBLE
"hv_hdif_necap" FLOAT DOUBLE
"hv_rdsw_necap" FLOAT DOUBLE
"hv_jsw_necap" FLOAT DOUBLE
"hv_tox_necap" FLOAT DOUBLE
"hv_cj_necap" FLOAT DOUBLE
"hv_cjsw_necap" FLOAT DOUBLE
"hv_ldif_necap" FLOAT DOUBLE
"hv_xj_necap" FLOAT DOUBLE
"hv_rd_necap" FLOAT DOUBLE
"hv_pb_necap" FLOAT DOUBLE
"hv_cf_necap" FLOAT DOUBLE
"hv_lint_necap" FLOAT DOUBLE
"hv_cjswg_necap" FLOAT DOUBLE
"hv_rsh_necap" FLOAT DOUBLE
"hv_u0_pecap" FLOAT DOUBLE
"hv_nch_pecap" FLOAT DOUBLE
"hv_rsc_pecap" FLOAT DOUBLE
"hv_cgbo_pecap" FLOAT DOUBLE
"hv_rdc_pecap" FLOAT DOUBLE
"hv_vth0_pecap" FLOAT DOUBLE
"hv_k2_pecap" FLOAT DOUBLE
"hv_cgdo_pecap" FLOAT DOUBLE
"hv_ckappa_pecap" FLOAT DOUBLE
"hv_wint_pecap" FLOAT DOUBLE
"hv_k1_pecap" FLOAT DOUBLE
"hv_cgsl_pecap" FLOAT DOUBLE
"hv_js_pecap" FLOAT DOUBLE
"hv_hdif_pecap" FLOAT DOUBLE
"hv_rdsw_pecap" FLOAT DOUBLE
"hv_jsw_pecap" FLOAT DOUBLE
"hv_tox_pecap" FLOAT DOUBLE
"hv_cj_pecap" FLOAT DOUBLE
"hv_cjsw_pecap" FLOAT DOUBLE
"hv_ldif_pecap" FLOAT DOUBLE
"hv_xj_pecap" FLOAT DOUBLE
"hv_rd_pecap" FLOAT DOUBLE
"hv_pb_pecap" FLOAT DOUBLE
"hv_cf_pecap" FLOAT DOUBLE
"hv_lint_pecap" FLOAT DOUBLE
"hv_cjswg_pecap" FLOAT DOUBLE
"hv_rsh_pecap" FLOAT DOUBLE
"hv_rs_pecap" FLOAT DOUBLE
"hv_vsat_pecap" FLOAT DOUBLE
"rnw" FLOAT DOUBLE
"rnl" FLOAT DOUBLE
"rns" FLOAT DOUBLE
"rnwo" FLOAT DOUBLE
"rpl" FLOAT DOUBLE
"rps" FLOAT DOUBLE
"rpwo" FLOAT DOUBLE
) PROP(
"key" "parameters"
)
VALUE
"top-level" "top-level" (
2.500000000000000e+01
2.700000000000000e+01
0.000000000000000e+00
0.000000000000000e+00
1.120000000000000e+05
6.000000000000000e+19
3.700000000000000e-10
2.000000000000000e-02
5.200000000000000e+17
4.082483000000000e-14
1.482000000000000e-11
1.000000000000000e+01
4.082483000000000e-14
1.692662000000000e-01
0.000000000000000e+00
2.667600000000000e-10
4.605336000000000e+00
6.000000000000000e-09
2.825346000000000e-01
1.111500000000000e-10
3.000000000000000e+19
3.366667000000000e-06
1.400000000000000e-07
3.900000000000000e-06
3.366667000000000e-10
2.330000000000000e-09
7.983537000000000e-04
4.790122000000000e-11
1.000000000000000e-08
2.500000000000000e-08
0.000000000000000e+00
9.918524000000000e-01
4.594612000000000e-11
1.500000000000000e-08
1.995884000000000e-11
1.000000000000000e+01
1.200000000000000e-02
4.000000000000000e+17
2.886751000000000e-14
1.392363000000000e-11
2.886751000000000e-14
-1.359511000000000e-01
0.000000000000000e+00
2.506253000000000e-10
1.043477000000000e+01
5.000000000000000e-09
2.637520000000000e-01
1.044272000000000e-10
3.350000000000000e-06
1.400000000000000e-07
7.800000000000000e-06
3.350000000000000e-10
2.480000000000000e-09
7.912252000000000e-04
4.747351000000000e-11
1.000000000000000e-08
2.500000000000000e-08
0.000000000000000e+00
1.009805000000000e+00
4.527118000000000e-11
1.500000000000000e-08
1.978063000000000e-11
2.000000000000000e+01
0.000000000000000e+00
1.000000000000000e+05
0.000000000000000e+00
1.120000000000000e+05
6.000000000000000e+19
-6.420000000000000e-11
2.000000000000000e-02
8.500000000000000e+17
4.082483000000000e-14
1.482000000000000e-11
0.000000000000000e+00
4.082483000000000e-14
2.742286000000000e-01
0.000000000000000e+00
2.667600000000000e-10
4.605336000000000e+00
6.000000000000000e-09
3.612264000000000e-01
1.111500000000000e-10
3.000000000000000e+19
3.366667000000000e-06
1.400000000000000e-07
3.900000000000000e-06
3.366667000000000e-10
2.330000000000000e-09
7.983537000000000e-04
4.790122000000000e-11
1.000000000000000e-08
2.500000000000000e-08
0.000000000000000e+00
9.918524000000000e-01
4.594612000000000e-11
1.500000000000000e-08
1.995884000000000e-11
1.000000000000000e+01
1.200000000000000e-02
6.700000000000000e+17
2.886751000000000e-14
1.392363000000000e-11
2.886751000000000e-14
-2.405796000000000e-01
0.000000000000000e+00
2.506253000000000e-10
1.043477000000000e+01
5.000000000000000e-09
3.413526000000000e-01
1.044272000000000e-10
3.350000000000000e-06
1.400000000000000e-07
7.800000000000000e-06
3.350000000000000e-10
2.480000000000000e-09
7.912252000000000e-04
4.747351000000000e-11
1.000000000000000e-08
2.500000000000000e-08
0.000000000000000e+00
1.009805000000000e+00
4.527118000000000e-11
1.500000000000000e-08
1.978063000000000e-11
2.000000000000000e+01
0.000000000000000e+00
1.000000000000000e+05
0.000000000000000e+00
1.120000000000000e+05
6.000000000000000e+19
-6.420000000000000e-11
3.300000000000000e-02
4.000000000000000e+17
4.082483000000000e-14
6.166179000000000e-12
0.000000000000000e+00
4.082483000000000e-14
4.485433000000000e-01
0.000000000000000e+00
1.109912000000000e-10
2.660269000000000e+01
6.000000000000000e-09
5.955691000000000e-01
4.624634000000000e-11
3.000000000000000e+19
3.366667000000000e-06
1.400000000000000e-07
3.900000000000000e-06
3.366667000000000e-10
5.600000000000000e-09
7.983537000000000e-04
4.790122000000000e-11
1.000000000000000e-08
2.500000000000000e-08
0.000000000000000e+00
9.918524000000000e-01
3.654122000000000e-11
1.500000000000000e-08
1.995884000000000e-11
1.000000000000000e+01
2.200000000000000e-02
3.300000000000000e+17
2.886751000000000e-14
5.953552000000000e-12
2.886751000000000e-14
-4.023550000000000e-01
0.000000000000000e+00
1.071639000000000e-10
5.707362000000000e+01
5.000000000000000e-09
5.602722000000000e-01
4.465164000000000e-11
3.350000000000000e-06
1.400000000000000e-07
7.800000000000000e-06
3.350000000000000e-10
5.800000000000000e-09
7.912252000000000e-04
4.747351000000000e-11
1.000000000000000e-08
2.500000000000000e-08
0.000000000000000e+00
1.009805000000000e+00
3.616963000000000e-11
1.500000000000000e-08
1.978063000000000e-11
2.000000000000000e+01
0.000000000000000e+00
1.000000000000000e+05
0.000000000000000e+00
1.120000000000000e+05
6.000000000000000e+19
3.700000000000000e-10
2.000000000000000e-02
5.200000000000000e+17
4.082483000000000e-14
1.482000000000000e-11
1.000000000000000e+01
4.082483000000000e-14
1.692662000000000e-01
0.000000000000000e+00
2.667600000000000e-10
4.605336000000000e+00
6.000000000000000e-09
2.825346000000000e-01
1.111500000000000e-10
3.000000000000000e+19
3.366667000000000e-06
1.400000000000000e-07
3.900000000000000e-06
3.366667000000000e-10
2.330000000000000e-09
7.983537000000000e-04
4.790122000000000e-11
1.000000000000000e-08
2.500000000000000e-08
0.000000000000000e+00
9.918524000000000e-01
4.594612000000000e-11
1.500000000000000e-08
1.995884000000000e-11
1.000000000000000e+01
1.200000000000000e-02
4.000000000000000e+17
2.886751000000000e-14
1.392363000000000e-11
2.886751000000000e-14
-1.359511000000000e-01
0.000000000000000e+00
2.506253000000000e-10
1.043477000000000e+01
5.000000000000000e-09
2.637520000000000e-01
1.044272000000000e-10
3.350000000000000e-06
1.400000000000000e-07
7.800000000000000e-06
3.350000000000000e-10
2.480000000000000e-09
7.912252000000000e-04
4.747351000000000e-11
1.000000000000000e-08
2.500000000000000e-08
0.000000000000000e+00
1.009805000000000e+00
4.527118000000000e-11
1.500000000000000e-08
1.978063000000000e-11
2.000000000000000e+01
0.000000000000000e+00
1.000000000000000e+05
0.000000000000000e+00
1.120000000000000e+05
6.000000000000000e+19
-6.420000000000000e-11
2.000000000000000e-02
8.500000000000000e+17
4.082483000000000e-14
1.482000000000000e-11
0.000000000000000e+00
4.082483000000000e-14
2.742286000000000e-01
0.000000000000000e+00
2.667600000000000e-10
4.605336000000000e+00
6.000000000000000e-09
3.612264000000000e-01
1.111500000000000e-10
3.000000000000000e+19
3.366667000000000e-06
1.400000000000000e-07
3.900000000000000e-06
3.366667000000000e-10
2.330000000000000e-09
7.983537000000000e-04
4.790122000000000e-11
1.000000000000000e-08
2.500000000000000e-08
0.000000000000000e+00
9.918524000000000e-01
4.594612000000000e-11
1.500000000000000e-08
1.995884000000000e-11
1.000000000000000e+01
1.200000000000000e-02
6.700000000000000e+17
2.886751000000000e-14
1.392363000000000e-11
2.886751000000000e-14
-2.405796000000000e-01
0.000000000000000e+00
2.506253000000000e-10
1.043477000000000e+01
5.000000000000000e-09
3.413526000000000e-01
1.044272000000000e-10
3.350000000000000e-06
1.400000000000000e-07
7.800000000000000e-06
3.350000000000000e-10
2.480000000000000e-09
7.912252000000000e-04
4.747351000000000e-11
1.000000000000000e-08
2.500000000000000e-08
0.000000000000000e+00
1.009805000000000e+00
4.527118000000000e-11
1.500000000000000e-08
1.978063000000000e-11
2.000000000000000e+01
0.000000000000000e+00
1.000000000000000e+05
0.000000000000000e+00
1.120000000000000e+05
6.000000000000000e+19
-6.420000000000000e-11
2.000000000000000e-02
4.000000000000000e+17
4.082483000000000e-14
6.166179000000000e-12
0.000000000000000e+00
4.082483000000000e-14
4.485433000000000e-01
0.000000000000000e+00
1.109912000000000e-10
2.660269000000000e+01
6.000000000000000e-09
5.955691000000000e-01
4.624634000000000e-11
3.000000000000000e+19
3.366667000000000e-06
1.400000000000000e-07
3.900000000000000e-06
3.366667000000000e-10
5.600000000000000e-09
7.983537000000000e-04
4.790122000000000e-11
1.000000000000000e-08
2.500000000000000e-08
0.000000000000000e+00
9.918524000000000e-01
3.654122000000000e-11
1.500000000000000e-08
1.995884000000000e-11
1.000000000000000e+01
1.200000000000000e-02
3.300000000000000e+17
2.886751000000000e-14
5.953552000000000e-12
2.886751000000000e-14
-4.023550000000000e-01
0.000000000000000e+00
1.071639000000000e-10
5.707362000000000e+01
5.000000000000000e-09
5.602722000000000e-01
4.465164000000000e-11
3.350000000000000e-06
1.400000000000000e-07
7.800000000000000e-06
3.350000000000000e-10
5.800000000000000e-09
7.912252000000000e-04
4.747351000000000e-11
1.000000000000000e-08
2.500000000000000e-08
0.000000000000000e+00
1.009805000000000e+00
3.616963000000000e-11
1.500000000000000e-08
1.978063000000000e-11
2.000000000000000e+01
0.000000000000000e+00
1.000000000000000e+05
4.090000000000000e+02
6.580000000000000e+00
6.700000000000000e+00
7.275000000000000e+01
7.200000000000000e+00
7.320000000000000e+00
1.458700000000000e+02
)
END
