HEADER
"PSFversion" "1.00"
"design" "(\"ece4740\" \"lab2_decoder_sim\" \"schematic\" \"\")"
"simulator" "spectre"
"temperature" "25.0"
"host" ""
"date" "Mar 15 22:06:35 2024"
"title" ""
"analysisList" "()"
END
