HEADER
"PSFversion" "1.00"
"Time Stamp" "Mar 15 22:06:35 2024"
TYPE
"variable" STRUCT(
"value" FLOAT DOUBLE
) PROP( "key" "element" )
VALUE
"temp" "variable" ( 25.0 ) PROP( )
END
