HEADER
"PSFversion" "1.00"
"c1n c2n c3n c4n c5n c6n c7n c8n c9n c10n c11n c12n c13n c14n c15n c16n c17n c18n c19n c20n c21n c22n c23n c24n c25n c26n c27n c28n c29n c30n c31n c32n c33n c34n c35n c36n c37n c38n c39n c40n c41n c42n c43n c44n c45n c46n c47n c48n c49n c50n c51n c52n c53n c54n c55n c56n c57n c58n c59n c60n c61n c62n c63n c64n c65n c66n c67n c68n c69n c70n c71n c72n c73n c74n c75n c76n c77n c78n c79n c80n c81n c82n c83n c84n c85n c86n c87n c88n c89n c90n c91n c92n c93n c94n c95n c96n c97n c98n c99n c100n c101n c102n c103n c104n c105n c106n c107n c108n c109n c110n c111n c112n c113n c114n c115n c116n c117n c118n c119n c120n c121n c122n c123n c124n c125n c126n c127n c128n c129n c130n c131n c132n c133n c134n c135n c136n c137n c138n c139n c140n c141n c142n c143n c144n c145n c146n c147n c148n c149n c150n c151n c152n c153n c154n c155n c156n c157n c158n c159n c160n c161n c162n c163n c164n c165n c166n c167n c168n c169n c170n c171n c172n c173n c174n c175n c176n c177n c178n c179n c180n c181n c182n c183n c184n c185n c186n c187n c188n c189n c190n c191n c192n c193n c194n c195n c196n c197n c198n c199n c200n c201n c202n c203n c204n c205n c206n c207n c208n c209n c210n c211n c212n c213n c214n c215n c216n c217n c218n c219n c220n c221n c222n c223n c224n c225n c226n c227n c228n c229n c230n c231n c232n c233n c234n c235n c236n c237n c238n c239n c240n c241n c242n c243n c244n c245n c246n c247n c248n c249n c250n c251n c252n c253n c254n c255n c256n c257n c258n c259n c260n c261n c262n c263n c264n c265n c266n c267n c268n c269n c270n c271n c272n c273n c274n c275n c276n c277n c278n c279n c280n c281n c282n c283n c284n c285n c286n c287n c288n c289n c290n c291n c292n c293n c294n c295n c296n c297n c298n c299n c300n c301n c302n c303n c304n c305n c306n c307n c308n c309n c310n c311n c312n c313n c314n c315n c316n c317n c318n c319n c320n c321n c322n c323n c324n c325n c326n c327n c328n c329n c330n c331n c332n c333n c334n c335n c336n c337n c338n c339n c340n c341n c342n c343n c344n c345n c346n c347n c348n c349n c350n c351n c352n c353n c354n c355n c356n c357n c358n c359n c360n c361n c362n c363n c364n c365n c366n c367n c368n c369n c370n c371n c372n c373n c374n c375n c376n c377n c378n c379n c380n c381n c382n c383n c384n c385n c386n c387n c388n c389n c390n c391n c392n c393n c394n c395n c396n c397n c398n c399n c400n c401n c402n c403n c404n c405n c406n c407n c408n c409n c410n c411n c412n c413n c414n c415n c416n c417n c418n c419n c420n c421n c422n c423n c424n c425n c426n c427n c428n c429n c430n c431n c432n c433n c434n c435n c436n c437n c438n c439n c440n c441n c442n c443n c444n c445n c446n c447n c448n c449n c450n c451n c452n c453n c454n c455n c456n c457n c458n c459n c460n c461n c462n c463n c464n c465n c466n c467n c468n c469n c470n c471n c472n c473n c474n c475n c476n c477n c478n c479n c480n c481n c482n c483n c484n c485n c486n c487n c488n c489n c490n c491n c492n c493n c494n c495n c496n c497n c498n c499n c500n c501n c502n c503n c504n c505n c506n c507n c508n c509n c510n c511n c512n c513n c514n c515n c516n c517n c518n c519n c520n c521n c522n c523n c524n c525n c526n c527n c528n c529n c530n c531n c532n c533n c534n c535n c536n c537n c538n c539n c540n c541n c542n c543n c544n c545n c546n c547n c548n c549n c550n c551n c552n c553n c554n c555n c556n c557n c558n c559n c560n c561n c562n c563n c564n c565n c566n c567n c568n c569n c570n c571n c572n c573n c574n c575n c576n c577n c578n c579n c580n c581n c582n c583n c584n c585n c586n c587n c588n c589n c590n c591n c592n c593n c594n c595n c596n c597n c598n c599n c600n c601n c602n c603n c604n c605n c606n c607n c608n c609n c610n c611n c612n c613n c614n c615n c616n c617n c618n c619n c620n c621n c622n c623n c624n c625n c626n c627n c628n c629n c630n c631n c632n c633n c634n c635n c636n c637n c638n c639n c640n c641n c642n c643n c644n c645n c646n c647n c648n c649n c650n c651n c652n c653n c654n c655n c656n c657n c658n c659n c660n c661n c662n c663n c664n c665n c666n c667n c668n c669n c670n c671n c672n c673n c674n c675n c676n c677n c678n c679n c680n c681n c682n c683n c684n c685n c686n c687n c688n c689n c690n c691n c692n c693n c694n c695n c696n c697n c698n c699n c700n c701n c702n c703n c704n c705n c706n c707n c708n c709n c710n c711n c712n c713n c714n c715n c716n c717n c718n c719n c720n c721n c722n c723n c724n c725n c726n c727n c728n c729n c730n c731n c732n c733n c734n c735n c736n c737n c738n c739n c740n c741n c742n c743n c744n c745n c746n c747n c748n c749n c750n c751n c752n c753n c754n c755n c756n c757n c758n c759n c760n c761n c762n c763n c764n c765n c766n c767n c768n c769n c770n c771n c772n c773n c774n c775n c776n c777n c778n c779n c780n c781n c782n c783n c784n c785n c786n c787n c788n c789n c790n c791n c792n c793n c794n c795n c796n c797n c798n c799n c800n c801n c802n c803n c804n c805n c806n c807n c808n c809n c810n c811n c812n" "analogLib_pcapacitor_spectre"
"rh1n rh2n rh3n rh4n rh5n rh6n rh7n rh8n rh9n rh10n rh11n rh12n ri1n ri2n ri3n ri4n ri6n ri8n ri9n ri10n ri11n ri13n ri14n ri16n ri17n ri18n ri19n ri21n ri22n ri23n ri25n ri26n ri28n ri29n ri30n ri32n ri34n ri36n ri37n ri38n ri39n ri41n ri42n ri43n ri45n ri46n ri48n ri49n ri50n ri52n ri54n ri56n ri57n ri58n ri59n ri61n ri62n ri63n ri65n ri66n ri68n ri69n ri70n ri72n ri74n ri76n ri77n ri78n ri79n ri81n ri82n ri83n ri85n ri86n ri88n ri89n ri90n ri92n ri94n ri96n ri97n ri98n ri99n ri100n ri101n ri102n ri104n ri106n ri108n ri109n ri110n ri111n ri113n ri114n ri115n ri116n ri118n ri120n ri121n ri122n ri123n ri125n ri126n ri127n ri128n ri130n ri132n ri133n ri134n ri135n ri137n ri138n ri139n ri140n ri142n ri144n ri145n ri146n ri147n ri149n ri150n ri151n ri152n ri154n ri155n ri156n ri157n ri158n ri159n ri160n ri161n ri162n ri163n ri164n ri165n ri166n ri167n ri168n ri169n ri170n ri171n ri172n ri173n ri174n ri175n ri176n ri177n ri178n ri179n ri180n ri181n ri182n ri183n ri184n ri185n ri186n ri187n ri189n ri190n ri191n ri192n ri193n ri194n ri195n ri196n ri197n ri198n ri199n ri200n ri201n ri202n ri203n ri204n ri205n ri206n ri207n ri208n ri209n ri210n ri211n ri212n ri213n ri214n ri215n ri217n ri219n ri221n ri223n ri225n ri227n ri229n ri231n ri233n ri234n ri235n ri236n ri237n ri238n ri239n ri240n ri241n ri242n ri243n ri244n ri245n ri246n ri247n ri248n ri249n ri250n ri251n ri252n ri253n ri254n ri255n rj1n rj2n rj3n rj4n rj5n rj6n rj7n rj8n rj9n rj10n rj11n rj12n rj13n rj14n rj15n rj16n rj17n rj18n rj19n rj20n rj21n rj22n rj23n rj24n rj25n rj26n rj27n rj28n rj29n rj30n rj31n rj32n rj33n rj34n rj35n rj36n rj37n rj38n rj39n rj40n rj41n rj42n" "analogLib_presistor_spectre"
"I3|PM0n I3|PM1n I2|PM0n I2|PM1n I1|PM0n I1|PM1n I0|PM0n I0|PM1n I12|PM0n I11|PM0n I10|PM0n I4|PM0n I15|PM0n I14|PM0n" "gpdk090_pmos1v_spectre"
"I3|NM0n I3|NM1n I2|NM0n I2|NM1n I1|NM0n I1|NM1n I0|NM0n I0|NM1n I12|NM0n I11|NM0n I10|NM0n I4|NM0n I15|NM0n I14|NM0n" "gpdk090_nmos1v_spectre"
"Av" ":1v"
"Bv" ":2v"
"Y0v" ":3v"
"Y1v" ":4v"
"Y2v" ":5v"
"Y3v" ":6v"
