HEADER
"PSFversion" "1.00"
"c1n c2n c3n c4n c5n c6n c7n c8n c9n c10n c11n c12n c13n c14n c15n c16n c17n c18n c19n c20n c21n c22n c23n c24n c25n c26n c27n c28n c29n c30n c31n c32n c33n c34n c35n c36n c37n c38n c39n c40n c41n c42n c43n c44n c45n c46n c47n c48n c49n c50n c51n c52n c53n c54n c55n c56n c57n c58n c59n c60n c61n c62n c63n c64n c65n c66n c67n c68n c69n c70n c71n c72n c73n c74n c75n c76n c77n c78n c79n c80n c81n c82n c83n c84n c85n c86n c87n c88n c89n c90n c91n c92n c93n c94n c95n c96n c97n c98n c99n c100n c101n c102n c103n c104n c105n c106n c107n c108n c109n c110n c111n c112n c113n c114n c115n c116n c117n c118n c119n c120n c121n c122n c123n c124n c125n c126n c127n c128n c129n c130n c131n c132n c133n c134n c135n c136n c137n c138n c139n c140n c141n c142n c143n c144n c145n c146n c147n c148n c149n c150n c151n c152n c153n c154n c155n c156n c157n c158n c159n c160n c161n c162n c163n c164n c165n c166n c167n c168n c169n c170n c171n c172n c173n c174n c175n c176n c177n c178n c179n c180n c181n c182n c183n c184n c185n c186n c187n c188n c189n c190n c191n c192n c193n c194n c195n c196n c197n c198n c199n c200n c201n c202n c203n c204n c205n c206n c207n c208n c209n c210n c211n c212n c213n c214n c215n c216n c217n c218n c219n c220n c221n c222n c223n c224n c225n c226n c227n c228n c229n c230n c231n c232n c233n c234n c235n c236n c237n c238n c239n c240n c241n c242n c243n c244n c245n c246n c247n c248n c249n c250n c251n c252n c253n c254n c255n c256n c257n c258n c259n c260n c261n c262n c263n c264n c265n c266n c267n c268n c269n c270n c271n c272n c273n c274n c275n c276n c277n c278n c279n c280n c281n c282n c283n c284n c285n c286n c287n c288n c289n c290n c291n c292n c293n c294n c295n c296n c297n c298n c299n c300n c301n c302n c303n c304n c305n c306n c307n c308n c309n c310n c311n c312n c313n c314n c315n c316n c317n c318n c319n c320n c321n c322n c323n c324n c325n c326n c327n c328n c329n c330n c331n c332n c333n c334n c335n c336n c337n c338n c339n c340n c341n c342n c343n c344n c345n c346n c347n c348n c349n c350n c351n c352n c353n c354n c355n c356n c357n c358n c359n c360n c361n c362n c363n c364n c365n c366n c367n c368n c369n c370n c371n c372n c373n c374n c375n c376n c377n c378n c379n c380n c381n c382n c383n c384n c385n c386n c387n c388n c389n c390n c391n c392n c393n c394n c395n c396n c397n c398n c399n c400n c401n c402n c403n c404n c405n c406n c407n c408n c409n c410n c411n c412n c413n c414n c415n c416n c417n c418n c419n c420n c421n c422n c423n c424n c425n c426n c427n c428n c429n c430n c431n c432n c433n c434n c435n c436n c437n c438n c439n c440n c441n c442n c443n c444n c445n c446n c447n c448n c449n c450n c451n c452n c453n c454n c455n c456n c457n c458n c459n c460n c461n c462n c463n c464n c465n c466n c467n c468n c469n c470n c471n c472n c473n c474n c475n c476n c477n c478n c479n c480n c481n c482n c483n c484n c485n c486n c487n c488n c489n c490n c491n c492n c493n c494n c495n c496n c497n c498n c499n c500n c501n c502n c503n c504n c505n c506n c507n c508n c509n c510n c511n c512n c513n c514n c515n c516n c517n c518n c519n c520n c521n c522n c523n c524n c525n c526n c527n c528n c529n c530n c531n c532n c533n c534n c535n c536n c537n c538n c539n c540n c541n c542n c543n c544n c545n c546n c547n c548n c549n c550n c551n c552n c553n c554n c555n c556n c557n c558n c559n c560n c561n c562n c563n c564n c565n c566n c567n c568n c569n c570n c571n c572n c573n c574n c575n c576n c577n c578n c579n c580n c581n c582n c583n c584n c585n c586n c587n c588n c589n" "analogLib_pcapacitor_spectre"
"rh1n rh2n rh3n rh4n rh5n rh6n rh7n rh8n rh9n rh10n ri1n ri2n ri4n ri6n ri7n ri8n ri9n ri11n ri12n ri14n ri15n ri17n ri19n ri20n ri21n ri22n ri24n ri25n ri27n ri28n ri29n ri30n ri31n ri33n ri35n ri36n ri38n ri40n ri41n ri42n ri43n ri44n ri46n ri47n ri49n ri50n ri52n ri54n ri55n ri56n ri57n ri59n ri60n ri62n ri63n ri64n ri65n ri66n ri67n ri68n ri70n ri72n ri73n ri74n ri76n ri78n ri79n ri80n ri81n ri82n ri83n ri84n ri85n ri86n ri87n ri88n ri89n ri90n ri91n ri93n ri95n ri97n ri99n ri100n ri101n ri102n ri103n ri104n ri105n ri106n rj1n rj2n rj3n rj4n rj5n rj6n rj7n rj8n rj9n rj10n rj11n rj12n rj13n rj14n rj15n rj16n rj17n rj18n rj19n rj20n rj21n rj22n rj23n rj24n rj25n rj26n" "analogLib_presistor_spectre"
"PM2n PM5n PM0n PM3n PM4n PM1n PM6n PM9n PM8n PM7n PM10n" "gpdk090_pmos1v_spectre"
"NM3n NM6n NM1n NM4n NM5n NM2n NM7n NM10n NM9n NM8n NM11n" "gpdk090_nmos1v_spectre"
"CLKv" ":1v"
"Dv" ":2v"
"Qv" ":3v"
