HEADER
"PSFversion" "1.00"
"__NEXT_FILE__" "lab3_dff_sim"
